Name;Formula;Family;Molar mass;Head Family;Head;Cyclic Head (Y/N);Sugar number in head;Carbon number;Saturated;Total  Number of Ramified Carbons;Multichain;JunTyp;Jun Direction;CMC (mM);Surface tension (CMC);Amin;Efficiency C20;Nagg
(1-Buty)lhexyl-beta-D-Glucoside;C16H32O6;Alkylglycosides;320,42;Glucose;Glucose;Y;1;10;Y;4;N;Ether;0;15;25,1;55,0;;
(1-Ethyl)octyl-beta-D-Glucoside;C16H32O6;Alkylglycosides;320,42;Glucose;Glucose;Y;1;10;Y;2;N;Ether;0;8,5;27,0;53,0;;
(1-Methyl)nonyl-beta-D-Glucoside;C16H32O6;Alkylglycosides;320,42;Glucose;Glucose;Y;1;10;Y;1;N;Ether;0;4,5;28,0;51;;
(1-Propyl)heptyl-beta-D-Glucoside;C16H32O6;Alkylglycosides;320,42;Glucose;Glucose;Y;1;10;Y;3;N;Ether;0;12;26,0;54,0;;
2’-(E)-7’-octadienyl-alpha-D-Xyloside;C13H22O5;Alkylglycosides;258,31;Xylose;Xylose;Y;1;8;N;0;N;Ether;0;1,94;31;43,0;;
2’-(E)-7’-octadienyl-alpha-L-Arabinoside;C13H22O5;Alkylglycosides;258,31;Arabinose;Arabinose;Y;1;8;N;0;N;Ether;0;0,70;34;57,5;;
3,7-Dimethyloctyl-beta-D-Glucoside;C16H32O6;Alkylglycosides;320,42;Glucose;Glucose;Y;1;10;Y;2;N;Ether;0;4;27,7;38,0;;
3,7-Dimethyloctyl-beta-D-Maltoside;C22H42O11;Alkylpolyglycosides;482,56;Maltose;Maltose;Y;2;10;Y;2;N;Ether;0;5,3;33,7;47,0;;
3,7-Dimethyloctyl-beta-D-Maltotrioside;C28H52O16;Alkylpolyglycosides;644,7;Maltotriose;Maltotriose;Y;3;10;Y;2;N;Ether;0;5;39,6;52,0;;
Decyl-alpha-D-GIucofuranoside;C16H32O6;Alkylglycosides;320,42;Glucose;Glucose;Y;1;10;Y;0;N;Ether;0;0,85;28,0;39;;
Decyl-alpha-D-Glucoside;C16H32O6;Alkylglycosides;320,42;Glucose;Glucose;Y;1;10;Y;0;N;Ether;0;0,35;28,2;49;;
Decyl-alpha-D-Mannoside;C16H32O6;Alkylglycosides;320,42;Mannose;Mannose;Y;1;10;Y;0;N;Ether;0;0,25;28,5;53;;
Decyl-beta-D-Galactoside;C16H32O6;Alkylglycosides;320,42;Galactose;Galactose;Y;1;10;Y;0;N;Ether;0;0,70;28;53;;
Decyl-beta-D-Glucoside;C16H32O6;Alkylglycosides;320,42;Glucose;Glucose;Y;1;10;Y;0;N;Ether;0;0,80;27,8;49;;
Decyl-beta-D-Glucoside;C16H32O6;Alkylglycosides;320,42;Glucose;Glucose;Y;1;10;Y;0;N;Ether;0;2,2;28,3;47;;
Decyl-beta-D-Maltoside;C22H42O11;Alkylpolyglycosides;482,56;Maltose;Maltose;Y;2;10;Y;0;N;Ether;0;2,1;37,3;47,4;;
Dodecyl-alpha-D-Glucoside;C18H36O6;Alkylglycosides;348,47;Glucose;Glucose;Y;1;12;Y;0;N;Ether;0;2,3;36,9;43;0,1;
Dodecyl-alpha-D-Mannoside;C18H36O6;Alkylglycosides;348,47;Mannose;Mannose;Y;1;12;Y;0;N;Ether;0;0,05;28,4;54;;
Dodecyl-beta-D-Galactoside;C18H36O6;Alkylglycosides;348,47;Galactose;Galactose;Y;1;12;Y;0;N;Ether;0;0,20;;51;;
Dodecyl-beta-D-Glucoside;C18H36O6;Alkylglycosides;348,47;Glucose;Glucose;Y;1;12;Y;0;N;Ether;0;0,19;39,8;36;;
Dodecyl-beta-D-Glucoside;C18H36O6;Alkylglycosides;348,47;Glucose;Glucose;Y;1;12;Y;0;N;Ether;0;0,15;27,3;51;;
Dodecyl-beta-D-Maltoside;C24H46O11;Alkylglycosides;510,62;Maltose;Maltose;Y;2;12;Y;0;N;Ether;0;0,17;35,3;46,7;;
Dodecyl-beta-D-Maltoside;C24H46O11;Alkylglycosides;510,62;Maltose;Maltose;Y;2;12;Y;0;N;Ether;0;0,15;36,25;49,9;;
Nonyl-beta-D-Glucoside;C15H30O6;Alkylglycosides;306,4;Glucose;Glucose;Y;1;9;Y;0;N;Ether;0;6,92;30,4;45,6;;
Octyl-alpha-D-GIucofuranoside;C14H28O6;Alkylglycosides;292,37;Glucose;Glucose;Y;1;8;Y;0;N;Ether;0;7,5;25,5;51,0;;
Octyl-alpha-D-Glucoside;C14H28O6;Alkylglycosides;292,37;Glucose;Glucose;Y;1;8;Y;0;N;Ether;0;12;30,5;47;;
Octyl-alpha-D-Glucoside;C14H28O6;Alkylglycosides;292,37;Glucose;Glucose;Y;1;8;Y;0;N;Ether;0;10;36,4;53;2,5;
Octyl-alpha-D-Mannoside;C14H28O6;Alkylglycosides;292,37;Mannose;Mannose;Y;1;8;Y;0;N;Ether;0;6,0;30,5;48;;
Octyl-beta-D-Galactoside;C14H28O6;Alkylglycosides;292,37;Galactose;Galactose;Y;1;8;Y;0;N;Ether;0;16;30,5;48;;
Octyl-beta-D-GIucofuranoside;C14H28O6;Alkylglycosides;292,37;Glucose;Glucose;Y;1;8;Y;0;N;Ether;0;9,4;30,2;44,0;;
Octyl-beta-D-Glucoside;C14H28O6;Alkylglycosides;292,37;Glucose;Glucose;Y;1;8;Y;0;N;Ether;0;25;31,2;42;;
Octyl-beta-D-Glucoside;C14H28O6;Alkylglycosides;292,37;Glucose;Glucose;Y;1;8;Y;0;N;Ether;0;22;30,8;38;;
Octyl-beta-D-Glucoside;C14H28O6;Alkylglycosides;292,37;Glucose;Glucose;Y;1;8;Y;0;N;Ether;0;20;30,5;48;;
Oleyl-beta-D-Maltoside;C30H56O11;Alkylpolyglycosides;592,76;Maltose;Maltose;Y;2;18;N;0;N;Ether;0;0,02;37,8;47;;
Oleyl-beta-D-Maltotrioside;C36H66O16;Alkylpolyglycosides;754,9;Maltotriose;Maltotriose;Y;3;18;N;0;N;Ether;0;0,042;42,5;128;;
Tetradecyl-alpha-D-Glucoside;C20H40O6;Alkylglycosides;376,53;Glucose;Glucose;Y;1;14;Y;0;N;Ether;0;0,8;48,8;43;0,6;
Tetradecyl-beta-D-Maltoside;C26H50O11;Alkylpolyglycosides;538,67;Maltose;Maltose;Y;2;14;Y;0;N;Ether;0;0,014;34,5;36;;
[N-(Oleoyl)-2 -Ethylamino]-beta-D-Maltoside;C32H59NO12;Alkylpolyglycosides Derivatives;649,81;Maltose;Maltose;Y;2;17;N;0;N;Ether+Amide;2;0,09;35,1;47,0;;
2-Amino-2-Deoxy-Nonyl-beta-D-Glucoside;C15H31NO5;Alkylpolyglycosides;305,41;Glucosamine;Glucosamine;Y;1;9;Y;0;N;Ether;0;7;30,2;46,0;;
2-Amino-2-Deoxy-Octyl-beta-D-Glucoside;C14H29NO5;Alkylpolyglycosides;291,38;Glucosamine;Glucosamine;Y;1;8;Y;0;N;Ether;0;23;32,5;48,0;;42
Butyl-alpha-D-Glucoside;C10H20O6;Alkylglycosides;236,26;Glucose;Glucose;Y;1;4;Y;0;N;Ether;0;75;47,4;52;63,1;
Butyl-beta-D-Glucoside;C10H20O6;Alkylglycosides;236,26;Glucose;Glucose;Y;1;4;Y;0;N;Ether;0;110;42,2;48;63,1;
N-Decyl-D-Gluconamide;C16H33NO6;Alkylglyconamides;335,44;Glucose;Acide gluconique;N;1;10;Y;0;N;Amide;1;;;;;
N-Decyl-D-Maltobionamide;C22H43NO11;Alkylglyconamides;497,58;Maltose;Acide maltobionique;YN;2;10;Y;0;N;Amide;1;1,3;33,9;36,0;0,3;
N-Dodecyl-D-Gluconamide;C18H37NO6;Alkylglyconamides;363,49;Glucose;Acide gluconique;N;1;12;Y;0;N;Amide;1;;;;;
N-Dodecyl-D-Maltobionamide;C24H47NO11;Alkylglyconamides;525,63;Maltose;Acide maltobionique;YN;2;12;Y;0;N;Amide;1;0,31;33,6;43,0;0,04;
N-Dodecyl-D-Galacturonamide;C18H35NO6;Alkyluronamides;361,47;Galactose;Acide galacturonique;Y;1;12;Y;0;N;Amide;1;1,8;21,5;38,9;;
N-Dodecyl-D-Glucuronamide;C18H35NO6;Alkyluronamides;361,47;Glucose;Acide glucuronique;Y;1;12;Y;0;N;Amide;1;0,7;22,1;30,0;;
N-Hexadecyl-D-Galacturonamide;C22H43NO6;Alkyluronamides;417,58;Galactose;Acide galacturonique;Y;1;16;Y;0;N;Amide;1;0,02;47,0;41,0;;
N-Hexyl-D-Maltobionamide;C18H35NO11;Alkylglyconamides;441,47;Maltose;Acide maltobionique;YN;2;6;Y;0;N;Amide;1;83;32,2;66,0;3,2;
N-Decanoyl-N-Methyl-D-Lactitolamine;C23H45NO11;N-Acyl-glycamines;511,6;Lactose;Lactitolamine;YN;2;9;Y;0;Y;Amide;2;3,32;40,3;50,4;0,8710;
N-Decyl-D-Lactobionamide;C22H43NO11;Alkylglyconamides;497,58;Lactose;Acide lactobionique;YN;2;10;Y;0;N;Amide;1;1,32;33;40,0;;
N-Decyl-D-Lactobionamide;C22H43NO11;Alkylglyconamides;497,58;Lactose;Acide lactobionique;YN;2;10;Y;0;N;Amide;1;;;;;
N-Decyl-N-Methyl-D-Gluconamide;C17H35NO6;Alkylglyconamides;349,46;Glucose;Acide gluconique;N;1;10;Y;0;Y;Amide;1;1,29;35,9;42,0;0,2512;
N-Decyl-N-Methyl-D-Lactobionamide;C23H45NO11;Alkylglyconamides;511,6;Lactose;Acide lactobionique;YN;2;10;Y;0;Y;Amide;1;2,31;38,1;40,0;0,5129;
N-Dodecanoyl-N-Methyl-D-Lactitolamine;C25H49NO11;N-Acyl-glycamines;539,66;Lactose;Lactitolamine;YN;2;11;Y;0;Y;Amide;2;0,447;37,2;49,9;0,0955;
N-Dodecyl Dextronamide;C66H117NO46;Alkylglyconamides;1660,61;Dextran;Acide aldonique du dextran;YN;9;12;Y;0;N;Amide;1;0,33;43,8;;0,1;
N-Dodecyl-D-Lactobionamide;C24H47NO11;Alkylglyconamides;525,63;Lactose;Acide lactobionique;YN;2;12;Y;0;N;Amide;1;0,251;35,1;39,0;;
N-Dodecyl-D-Lactobionamide;C24H47NO11;Alkylglyconamides;525,63;Lactose;Acide lactobionique;YN;2;12;Y;0;N;Amide;1;0,35;38,0;42,0;;
N-Dodecyl-D-Lactobionamide;C24H47NO11;Alkylglyconamides;525,63;Lactose;Acide lactobionique;YN;2;12;Y;0;N;Amide;1;;;;;
N-Dodecyl-N-Methyl-D-Gluconamide;C19H39NO6;Alkylglyconamides;377,52;Glucose;Acide gluconique;N;1;12;Y;0;Y;Amide;1;0,148;32,2;39,3;;
N-Dodecyl-N-Methyl-D-Gluconamide;C19H39NO6;Alkylglyconamides;377,52;Glucose;Acide gluconique;N;1;12;Y;0;Y;Amide;1;0,146;34,4;42,0;0,0166;
N-Dodecyl-N-Methyl-D-Lactobionamide;C25H49NO11;Alkylglyconamides;539,66;Lactose;Acide lactobionique;YN;2;12;Y;0;Y;Amide;1;0,338;34,3;40,6;;
N-Dodecyl-N-Methyl-D-Lactobionamide;C25H49NO11;Alkylglyconamides;539,66;Lactose;Acide lactobionique;YN;2;12;Y;0;Y;Amide;1;0,249;35,2;42,0;0,0355;
N-Dodecyl-N-Methyl-D-Glucoheptonamide ;C20H41NO7;Alkylglyconamides;407,54;Glucoheptose;Acide glucoheptonique;N;1;12;Y;0;Y;Amide;1;0,06;36,9;44,0;;
N-Hexadecanoyl-N-Methyl-D-Lactitolamine;C29H57NO11;N-Acyl-glycamines;595,76;Lactose;Lactitolamine;YN;2;15;Y;0;Y;Amide;2;0,0175;36,5;49,4;0,0035;
N-Hexadecyl-N-Methyl-D-Gluconamide;C23H47NO6;Alkylglyconamides;433,62;Glucose;Acide gluconique;N;1;16;Y;0;Y;Amide;1;0,00774;33,5;45,0;0,0008;
N-Hexadecyl-N-Methyl-D-Lactobionamide;C29H57NO11;Alkylglyconamides;595,76;Lactose;Acide lactobionique;YN;2;16;Y;0;Y;Amide;1;0,0093;34,8;44,0;0,0010;
N-Octadecanoyl-N-Methyl-D-Lactitolamine;C31H61NO11;N-Acyl-glycamines;623,82;Lactose;Lactitolamine;YN;2;17;Y;0;Y;Amide;2;0,00562;35,7;49,9;0,0011;
N-Octadecyl-N-Methyl-D-Gluconamide;C25H51NO6;Alkylglyconamides;461,68;Glucose;Acide gluconique;N;1;18;Y;0;Y;Amide;1;0,00285;32,3;42,0;0,0003;
N-Octadecyl-N-Methyl-D-Lactobionamide;C31H61NO11;Alkylglyconamides;623,82;Lactose;Acide lactobionique;YN;2;18;Y;0;Y;Amide;1;0,0033;33,8;42,0;0,0005;
N-Octyl-D-Glucoheptonamide;C15H31NO7;Alkylglyconamides;337,41;Glucoheptose;Acide glucoheptonique;N;1;8;Y;0;N;Amide;1;0,4;50,7;58,0;;
N-Oleyl-N-Methyl-D-Gluconamide;C25H49NO6;Alkylglyconamides;459,66;Glucose;Acide gluconique;N;1;18;N;0;Y;Amide;1;0,0322;34;43,0;0,0043;
N-Oleyl-N-Methyl-D-Lactobionamide;C31H59NO11;Alkylglyconamides;621,8;Lactose;Acide lactobionique;YN;2;18;N;0;Y;Amide;1;0,0538;35;43,0;0,0081;
N-Tetradecanoyl-N-Methyl-D-Lactitolamine;C27H53NO11;N-Acyl-glycamines;567,71;Lactose;Lactitolamine;YN;2;13;Y;0;Y;Amide;2;0,0676;37,0;50,8;0,0135;
N-Tetradecyl-D-Lactobionamide;C26H51NO11;Alkylglyconamides;553,68;Lactose;Acide lactobionique;YN;2;14;Y;0;N;Amide;1;;;;;
N-Tetradecyl-N-Methyl-D-Gluconamide;C21H43NO6;Alkylglyconamides;405,57;Glucose;Acide gluconique;N;1;14;Y;0;Y;Amide;1;0,0236;34,2;42,0;0,0028;
N-Tetradecyl-N-Methyl-D-Lactobionamide;C27H53NO11;Alkylglyconamides;567,71;Lactose;Acide lactobionique;YN;2;14;Y;0;Y;Amide;1;0,0364;34,9;44,0;0,0040;
N-Octadecyl-D-Maltobionamide;C30H59NO11;Alkylglyconamides;609,79;Maltose;Acide maltobionique;YN;2;18;Y;0;N;Amide;1;;;;;
N-Octyl-D-Maltobionamide;C20H39NO11;Alkylglyconamides;469,52;Maltose;Acide maltobionique;YN;2;8;Y;0;N;Amide;1;5,7;31,8;39,0;0,8;
N-Octyl-D-Galacturonamide;C14H27NO6;Alkyluronamides;305,37;Galactose;Acide galacturonique;Y;1;8;Y;0;N;Amide;1;4,0;20,5;33,8;;
N-Octyl-D-Glucuronamide;C14H27NO6;Alkyluronamides;305,37;Glucose;Acide glucuronique;Y;1;8;Y;0;N;Amide;1;3,3;24,4;25,0;;
N-Tetradecyl-D-Gluconamide;C20H41NO6;Alkylglyconamides;391,54;Glucose;Acide gluconique;N;1;14;Y;0;N;Amide;1;;;;;
N-Tetradecyl-D-Galacturonamide;C20H39NO6;Alkyluronamides;389,53;Galactose;Acide galacturonique;Y;1;14;Y;0;N;Amide;1;0,06;32,5;38,1;;
N-Tetradecyl-D-Glucuronamide;C20H39NO6;Alkyluronamides;389,53;Glucose;Acide glucuronique;Y;1;14;Y;0;N;Amide;1;0,5;24,0;21,1;;
alpha-D-Glucosyl Dodecane;C18H36O5;Alkyl-C-glycosides;332,48;Glucose;Glucose;Y;1;12;Y;0;N;C-glycoside;0;0,6;26;36,8;;
alpha-D-Glucosyl Hexane;C12H24O5;Alkyl-C-glycosides;248,32;Glucose;Glucose;Y;1;6;Y;0;N;C-glycoside;0;;26;37,3;;
alpha-D-Glucosyl Octane;C14H28O5;Alkyl-C-glycosides;276,37;Glucose;Glucose;Y;1;8;Y;0;N;C-glycoside;0;7,9;26;39,8;;
p-(beta-D-Glucosyl) butylbenzene;C16H24O5;Alkyl-C-glycosides;296,36;Glucose;Glucose;Y;1;10;Y;0;N;C-glycoside;0;50,0;33,5;44,0;;
p-(beta-D-Glucosyl)ethylbenzene;C14H20O5;Alkyl-C-glycosides;268,31;Glucose;Glucose;Y;1;8;Y;0;N;C-glycoside;0;500;40,0;46,0;;
p-(beta-D-Glucosyl) propylbenzene;C15H22O5;Alkyl-C-glycosides;282,33;Glucose;Glucose;Y;1;9;Y;0;N;C-glycoside;0;130;35,5;45,4;;
p-(beta-D-Glucosyl) Toluene;C13H18O5;Alkyl-C-glycosides;254,28;Glucose;Glucose;Y;1;7;Y;0;N;C-glycoside;0;;41,5;45,5;;
p-(beta-D-Xylosyl) butylbenzene;C9H18O4;Alkyl-C-glycosides;190,24;Xylose;Xylose;Y;1;10;Y;0;N;C-glycoside;0;11;29;36,0;;
p-Glyceryl ethylbenzene;C11H16O3;Alkyl-C-glycosides;196,24;Glycerol;Glycerol;N;1;8;Y;0;N;C-glycoside;0;;30;32,5;;
1-O-Butyl-D,L-Xylitol;C9H20O5;Itols;208,25;Xylose;Xylitol;N;1;4;Y;0;N;Ether;0;;;;;
1-O-Decanoyl-D,L-Erythritol;C14H28O5;Itols;276,37;Erythrose;Erythritol;N;1;9;Y;0;N;Ester;2;1,6;28,1;37,0;;
1-O-Decanoyl-D,L-Glycerol;C13H26O4;Itols;246,34;Glycerol;Glycerol;N;1;9;Y;0;N;Ester;2;0,99;24,2;32,0;;
1-O-Decanoyl-D,L-Xylitol;C15H30O6;Itols;306,4;Xylose;Xylitol;N;1;9;Y;0;N;Ester;2;1,8;26,0;45,0;0,1;
1-O-Decanoyl-D,L-Xylitol;C15H30O6;Itols;306,4;Xylose;Xylitol;N;1;9;Y;0;N;Ester;2;1,5;25,5;30,0;;
1-O-Decyl-D,L-Xylitol;C15H32O5;Itols;292,41;Xylose;Xylitol;N;1;10;Y;0;N;Ether;0;0,81;;36,0;0,1;
1/5-O-Dodecanoyl-D-Arabinitol;C17H34O6;Itols;334,45;Arabinose/Lyxose;Arabinitol (Lyxitol);N;1;11;Y;0;N;Ester;2;0,13;29,3;32,0;;
1-O-Dodecanoyl-D,L-Erythritol;C16H32O5;Itols;304,42;Erythrose;Erythritol;N;1;11;Y;0;N;Ester;2;0,044;32,4;33,0;;
1-O-Dodecanoyl-D,L-Glycerol;C15H30O4;Polyols;274,4;Glycerol;glycerol;N;1;11;Y;0;N;Ester;2;0,044;36,2;35,0;;
1-O-Dodecanoyl-D,L-Ribitol;C17H34O6;Itols;334,45;Ribose;Ribitol;N;1;11;Y;0;N;Ester;2;0,11;30,9;35,0;;
1/6-O-Dodecanoyl-D-Sorbitol;C18H36O7;Itols;364,47;Glucose/Gulose;Glucitol (Sorbitol);N;1;11;Y;0;N;Ester;2;0,077;36,5;32,0;;
1-O-Dodecanoyl-D,L-Xylitol;C17H34O6;Itols;334,45;Xylose;Xylitol;N;1;11;Y;0;N;Ester;2;;;;;
1-O-Dodecanoyl-D,L-Xylitol;C17H34O6;Itols;334,45;Xylose;Xylitol;N;1;11;Y;0;N;Ester;2;0,14;26,5;34,0;;
1-O-Dodecyl-D,L-Xylitol;C17H36O5;Itols;320,46;Xylose;Xylitol;N;1;12;Y;0;N;Ether;0;;;;;
1-O-Heptanoyl-D,L-Xylitol;C12H24O6;Itols;264,32;Xylose;Xylitol;N;1;6;Y;0;N;Ester;2;10;30,0;48,0;0,6;
1-O-Heptyl-D,L-Xylitol;C12H26O5;Itols;250,33;Xylose;Xylitol;N;1;7;Y;0;N;Ether;0;9,2;;36,0;1,3;
1-O-Hexadecanoyl-D,L-Xylitol;C21H42O6;Itols;390,55;Xylose;Xylitol;N;1;15;Y;0;N;Ester;2;;;;;
1-O-Hexanoyl-D,L-Xylitol;C11H22O6;Itols;250,29;Xylose;Xylitol;N;1;5;Y;0;N;Ester;2;58;33,2;52,0;7,9;
1-O-Hexyl-D,L-Xylitol;C11H24O5;Itols;236,31;Xylose;Xylitol;N;1;6;Y;0;N;Ester;2;;;;;
1-O-Nonanoyl-D,L-Xylitol;C14H18O6;Itols;292,37;Xylose;Xylitol;N;1;8;Y;0;N;Ester;2;4,4;25,4;37,0;0,5; 
1-O-Nonyl-D,L-Xylitol;C14H30O5;Itols;278,39;Xylose;Xylitol;N;1;9;Y;0;N;Ether;0;2,1;;29,0;0,4;
1-O-Octadecanoyl-D,L-Xylitol;C23H46O6;Itols;418,61;Xylose;Xylitol;N;1;17;Y;0;N;Ester;2;;;;;
1-O-Octadecyl-D,L-Xylitol;C23H48O5;Itols;404,62;Xylose;Xylitol;N;1;18;Y;0;N;Ether;0;;;;;
1-O-Octanoyl-D,L-Erythritol;C12H24O5;Itols;248,32;Erythrose;Erythritol;N;1;7;Y;0;N;Ester;2;19;26,1;34,0;;
1-O-Octanoyl-D,L-Glycerol;C11H22O4;Polyols;218,29;Glycerol;Glycerol;N;1;7;Y;0;N;Ester;2;14;24,7;39,0;;
1-O-Octanoyl-D,L-Xylitol;C13H26O6;Itols;278,34;Xylose;Xylitol;N;1;7;Y;0;N;Ester;2;18;28,6;52,0;1,6;
1-O-Octanoyl-D,L-Xylitol;C13H26O6;Itols;278,34;Xylose;Xylitol;N;1;7;Y;0;N;Ester;2;24;26,4;48,0;;
1-O-Octyl-D,L-Xylitol;C13H28O5;Itols;264,36;Xylose;Xylitol;N;1;8;Y;0;N;Ether;0;6,7;;49,0;0,4;
1-O-Pentanoyl-D,L-Xylitol;C10H20O6;Itols;236,26;Xylose;Xylitol;N;1;4;Y;0;N;Ester;2;120;30,0;44,0;12,6;
1-O-Pentyl-D,L-Xylitol;C10H22O5;Itols;222,28;Xylose;Xylitol;N;1;5;Y;0;N;Ether;0;;;;;
1-O-Tetradecanoyl-D,L-Erythritol;C18H36O5;Itols;332,48;Erythrose;Erythritol;N;1;13;Y;0;N;Ester;2;0,011;40,9;30,0;;
1-O-Tetradecanoyl-D,L-Glycerol;C17H34O4;Polyols;302,45;Glycerol;Glycerol;N;1;13;Y;0;N;Ester;2;0,0058;48;30,0;;
1-O-Tetradecanoyl-D,L-Xylitol;C19H38O6;Itols;362,5;Xylose;Xylitol;N;1;13;Y;0;N;Ester;2;;;;;
1-O-Tetradecanoyl-D,L-Xylitol;C19H38O6;Itols;362,5;Xylose;Xylitol;N;1;13;Y;0;N;Ester;2;0,015;25,2;30,0;;
1-O-Tetradecyl-D,L-Xylitol;C19H40O5;Itols;348,52;Xylose;Xylitol;N;1;14;Y;0;N;Ether;0;;;;;
1-O-Undecanoyl-D,L-Xylitol;C16H32O6;Itols;320,42;Xylose;Xylitol;N;1;10;Y;0;N;Ester;2;;;;;
1-O-Undecyl-D,L-Xylitol;C16H34O5;Itols;306,44;Xylose;Xylitol;N;1;11;Y;0;N;Ether;0;0,3;;38,0;0,03;
1-S-Butyl-1-Thio-D,L-Xylitol;C9H20O4S;Itols;224,32;Xylose;Xylitol;N;1;4;Y;0;N;Thioether;0;180;;58,0;15,8;
5-S-Decyl-5-Thio-D-Arabinitol;C15H32O4S;Itols;308,48;Arabinose/Lyxose;Arabinitol;N;1;10;Y;0;N;Thioether;0;;33,50;;;
 5-S-decyl-5-thio-D-Ribitol;C15H32O4S;Itols;308,48;Ribose;Ribitol;N;1;10;Y;0;N;Thioether;0;;36,80;;;
 5-S-Decyl 5-Thio-D-Xylitol;C15H32O4S;Itols;308,48;Xylose;Xylitol;N;1;10;Y;0;N;Thioether;0;0,40;28,20;45,7;0,004;
5-S-Decyl 5-Thio-D-Arabinonolactone;C15H28O4S;Lactones;304,45;Arabinose;Arabinonolactone;Y;1;10;Y;0;N;Thioether;0;0,033;28,00;33,2;0,004;
5-S-Decyl 5-Thio-D-Ribonolactone;C15H28O4S;Lactones;304,45;Ribose;Ribonolactone;Y;1;10;Y;0;N;Thioether;0;;;;;
5-S-Decyl 5-Thio-D-Xylonolactone;C15H28O4S;Lactones;304,45;Xylose;Xylonolactone;Y;1;10;Y;0;N;Thioether;0;0,023;29,50;33,6;0,004;
1-S-Decyl-1-Thio-D,L-Xylitol;C15H32O4S;Itols;308,48;Xylose;Xylitol;N;1;10;Y;0;N;Thioether;0;;;;;
 5-S-Dodecyl-5-Thio-D-Arabinitol;C17H36O4S;Itols;336,53;Arabinose/Lyxose;Arabinitol;N;1;12;Y;0;N;Thioether;0;;;;;
5-S-Dodecyl-5-thio-D-Ribitol;C17H36O4S;Itols;336,53;Ribose;Ribitol;N;1;12;Y;0;N;Thioether;0;;;;;
5-S-Dodecyl 5-Thio-D-Xylitol;C17H36O4S;Itols;336,53;Xylose;Xylitol;N;1;12;Y;0;N;Thioether;0;;;;;
5-S-Dodecyl 5-Thio-D-Arabinonolactone;C17H32O4S;Lactones;332,5;Arabinose;Arabinonolactone;Y;1;12;Y;0;N;Thioether;0;;33,80;;;
5-S-Dodecyl 5-Thio-D-Ribonolactone;C17H32O4S;Lactones;332,5;Ribose;Ribonolactone;Y;1;12;Y;0;N;Thioether;0;;;;;
5-S-Dodecyl 5-Thio-D-Xylonolactone;C17H32O4S;Lactones;332,5;Xylose;Xylonolactone;Y;1;12;Y;0;N;Thioether;0;;31,00;;;
1-S-Dodecyl-1-Thio-D,L-Xylitol;C17H36O4S;Itols;336,53;Xylose;Xylitol;N;1;12;Y;0;N;Thioether;0;;;;;
1-S-Heptyl-1-Thio-D,L-Xylitol;C12H26O4S;Itols;266,4;Xylose;Xylitol;N;1;7;Y;0;N;Thioether;0;;;;;
1-S-Hexadecyl-1-Thio-D,L-Xylitol;C21H44O4S;Itols;392,64;Xylose;Xylitol;N;1;16;Y;0;N;Thioether;0;;;;;
5-S-Hexyl-5-Thio-D-Arabinitol;C11H24O4S;Itols;252,37;Arabinose/Lyxose;Arabinitol;N;1;6;Y;0;N;Thioether;0;18;30,00;66,2;0,56;
 5-S-hexyl-5-thio-D-Ribitol;C11H24O4S;Itols;252,37;Ribose;Ribitol;N;1;6;Y;0;N;Thioether;0;10,2;27,20;65,9;0,20;
5-S-Hexyl 5-Thio-D-Xylitol;C11H24O4S;Itols;252,37;Xylose;Xylitol;N;1;6;Y;0;N;Thioether;0;11,6;28,20;71,3;0,22;
5-S-Hexyl 5-Thio-D-Arabinonolactone;C11H20O4S;Lactones;248,34;Arabinose;Arabinonolactone;Y;1;6;Y;0;N;Thioether;0;6,7;25,10;49,5;0,44;
5-S-Hexyl 5-Thio-D-Ribonolactone;C11H20O4S;Lactones;248,34;Ribose;Ribonolactone;Y;1;6;Y;0;N;Thioether;0;;42,40;;;
5-S-Hexyl 5-Thio-D-Xylonolactone;C11H20O4S;Lactones;248,34;Xylose;Xylonolactone;Y;1;6;Y;0;N;Thioether;0;5,0;26,30;40,3;0,42;
1-S-Hexyl-1-Thio-D,L-Xylitol;C11H24O4S;Itols;252,37;Xylose;Xylitol;N;1;6;Y;0;N;Thioether;0;16;;34,0;2,0;
1-S-Nonyl-1-Thio-D,L-Xylitol;C14H30O3S;Itols;294,45;Xylose;Xylitol;N;1;9;Y;0;N;Thioether;0;;;;;
1-S-Octadecyl-1-Thio-D,L-Xylitol;C23H48O4S;Itols;420,69;Xylose;Xylitol;N;1;18;Y;0;N;Thioether;0;;;;;
5-S-Octyl-5-Thio-D-Arabinitol;C12H28O4S;Itols;280,42;Arabinose/Lyxose;Arabinitol;N;1;8;Y;0;N;Thioether;0;1,8;29,30;42,1;0,01;
5-S-Octyl-5-thio-D-Ribitol;C13H28O4S;Itols;280,42;Ribose;Ribitol;N;1;8;Y;0;N;Thioether;0;0,38;34,80;44,3;0,003;
 5-S-Octyl 5-Thio-D-Xylitol;C13H28O4S;Itols;280,42;Xylose;Xylitol;N;1;8;Y;0;N;Thioether;0;1,21;33,00;46,3;0,004;
5-S-Octyl 5-Thio-D-Arabinonolactone;C13H24O4S;Lactones;276,39;Arabinose;Arabinonolactone;Y;1;8;Y;0;N;Thioether;0;0,48;24,10;38,3;0,02;
5-S-Octyl 5-Thio-D-Ribonolactone;C13H24O4S;Lactones;276,39;Ribose;Ribonolactone;Y;1;8;Y;0;N;Thioether;0;;;;;
5-S-Octyl 5-Thio-D-Xylonolactone;C13H24O4S;Lactones;276,39;Xylose;Xylonolactone;Y;1;8;Y;0;N;Thioether;0;0,53;25,70;35,2;0,04;
1-S-Octyl-1-Thio-D,L-Xylitol;C13H28O4S;Itols;280,42;Xylose;Xylitol;N;1;8;Y;0;N;Thioether;0;;;;;
1-S-Pentyl-1-Thio-D,L-Xylitol;C10H22O4S;Itols;238,34;Xylose;Xylitol;N;1;5;Y;0;N;Thioether;0;46;;45,0;6,3;
1-S-Tetradecyl-1-Thio-D,L-Xylitol;C19H40O4S;Itols;364,58;Xylose;Xylitol;N;1;14;Y;0;N;Thioether;0;;;;;
1-S-Undecyl-1-Thio-D,L-Xylitol;C16H34O4S;Itols;322,5;Xylose;Xylitol;N;1;11;Y;0;N;Thioether;0;;;;;
3-O-Dodecanoyl-D-glucose;C18H34O7;Sugar Esters;362,46;Glucose;Glucose;Y;1;11;Y;0;N;Ester;2;0,298;33,04;40,0;;
6-O-Decanoyl-D-mannose;C16H30O7;Sugar Esters;334,41;Mannose;Mannose;Y;1;9;Y;0;N;Ester;2;2,25;27,3;40,0;;
6-O-Decanoyl-D-sucrose;C22H40O12;Sugar Esters;496,55;Sucrose;Sucrose;Y;2;9;Y;0;N;Ester;2;0,43;;50,2;;
6-O-Dodecanoyl-D-leucrose;C24H44O12;Sugar Esters;524,6;Leucrose;Leucrose;Y;2;11;Y;0;N;Ester;2;0,135;30,0;40,0;0,016;